12
Energy = -232.0570538751
C     0.8124638    0.7359224   -0.0017359 
C    -0.3922813    1.4243017    0.0007655 
C    -1.3000330    1.2303007    1.0320991 
C    -1.0030996    0.3478351    2.0608741 
C     0.2016231   -0.3405937    2.0583491 
C     1.1094118   -0.1465295    1.0270635 
H     1.5213508    0.8873394   -0.8068954 
H    -0.6241157    2.1133068   -0.8025098 
H    -2.2406319    1.7678801    1.0340288 
H    -1.7118958    0.1963548    2.8661038 
H     0.4335242   -1.0296429    2.8615622 
H     2.0500597   -0.6840210    1.0251158 
