15
Energy = -412.8073009240
N     0.1226448    0.0454880   -0.3224266 
C     0.7113311   -0.2437886   -1.5647166 
C     0.1417921   -0.2107475   -2.8186059 
N     1.0422771   -0.6435131   -3.7730860 
H     0.8305204   -0.7808419   -4.7409763 
C     2.2104362   -0.9589164   -3.1372109 
C     2.0306882   -0.7251892   -1.7799273 
N     3.2093314   -1.0473597   -1.1911239 
H     3.4462125   -1.0600203   -0.2182494 
N     4.1121382   -1.4813783   -2.0852563 
C     3.5287406   -1.4318039   -3.2745984 
H     0.5801681    0.8133095    0.1499642 
H    -0.8579961    0.2647509   -0.4110767 
H    -0.8562134    0.0885939   -3.0972629 
H     4.0787618   -1.7337505   -4.1514251 
