16
Energy = -430.0808377940
N     0.5856826   -0.0135649    0.0840641 
C     1.3252752    0.0503499    1.1242141 
N     2.2758818    1.0197061    1.4081167 
N     1.2740196   -0.9206621    2.0910502 
C     0.4374608   -2.0243601    2.0867337 
C     0.3205664   -3.0387534    3.0161299 
C    -0.6888134   -3.8597786    2.4827742 
N    -1.1541250   -3.3974579    1.3358421 
N    -0.4511092   -2.2794989    1.1129387 
H    -0.5618411   -1.6930907    0.2972113 
H     0.6871234    0.8067036   -0.4998507 
H     2.2507049    1.8119576    0.7894060 
H     2.3432303    1.2945535    2.3752835 
H     2.0398609   -0.9613869    2.7380407 
H     0.8719900   -3.1580249    3.9336499 
H    -1.0932192   -4.7702423    2.8974866 
