15
Energy = -453.7535134127
N     0.7383105    0.4475106    0.1564179 
C     0.0489347   -0.2038764   -0.8672206 
C     0.3748614   -0.0820877   -2.1660718 
O    -0.3746173   -0.6470727   -3.1635566 
C    -1.4551288   -1.3937712   -2.8910497 
N    -2.1811578   -1.9589684   -3.7713238 
C    -1.8267325   -1.5636409   -1.4918900 
O    -2.9100083   -2.3110628   -1.2954793 
C    -1.1070207   -0.9808929   -0.5151285 
H     1.6272344    0.8286649   -0.1264632 
H     0.8469485   -0.1168939    0.9849687 
H     1.2141279    0.4697805   -2.5592723 
H    -1.8640086   -1.7929551   -4.7191128 
H    -3.1925503   -2.5658262   -2.1962270 
H    -1.4001203   -1.0845562    0.5220103 
