14
Energy = -473.6727643144
C     0.8247827    0.5926276    0.0690797 
C     1.8081495   -0.3891826    0.0243106 
C     2.8675169   -0.2551532    0.9067821 
N     2.9941374    0.7369549    1.7739470 
C     2.0381123    1.6574634    1.7902540 
C     0.9265953    1.6465658    0.9662528 
O     2.1790463    2.6571720    2.6730622 
O     3.8374861   -1.1820874    0.8958523 
O    -0.2496923    0.5652709   -0.7406525 
H     1.7653171   -1.2258478   -0.6601265 
H     0.1756246    2.4199265    1.0185704 
H     3.0009835    2.4904720    3.1459381 
H     4.4739346   -0.9186968    1.5687414 
H    -0.2024059   -0.2066772   -1.3084935 
