16
Energy = -437.7307463703
C     0.9789601    0.8211504   -0.1663865 
O     1.7427435    2.0010438   -0.1255924 
C     2.6844529    2.1613108   -1.0853391 
C     2.9497912    1.2623706   -2.1051294 
N     3.8949255    1.4764186   -3.0256369 
C     4.6005811    2.5809670   -2.9627440 
O     5.5490828    2.7792821   -3.8994159 
C     4.4157413    3.5535954   -1.9773620 
C     3.4442636    3.3318007   -1.0328495 
H     0.2909519    0.8722965    0.6744296 
H     1.6099373   -0.0677304   -0.0626688 
H     0.4064476    0.7465025   -1.0967821 
H     2.3969427    0.3363208   -2.2024007 
H     5.5202509    2.0093956   -4.4771622 
H     5.0259223    4.4462902   -1.9721614 
H     3.2521404    4.0471953   -0.2428857 
