15
Energy = -395.8207107530
C     0.9847591    0.7152802   -0.3993622 
O     0.1611938   -0.2219621    0.2667302 
C    -0.8808498   -0.6815519   -0.4460385 
C    -1.8025361   -1.5902053    0.0165440 
N    -1.9944491   -2.2846687    1.2154257 
N    -2.6644339   -1.7503275   -1.0497790 
H    -3.4641099   -2.3577897   -1.0396776 
C    -2.2376195   -0.9660692   -2.0549081 
N    -1.1519420   -0.3012921   -1.7178384 
H     0.4181061    1.6031865   -0.6879122 
H     1.4272287    0.2822421   -1.2990240 
H     1.7656898    0.9841530    0.3089165 
H    -1.2184977   -2.8945917    1.4329748 
H    -2.1312556   -1.6624426    1.9999113 
H    -2.7372663   -0.9052009   -3.0084271 
