23
Energy = -591.4618282716
C     0.8865597    0.7833677   -0.0423099 
C     0.4749652    1.9727838   -0.6353031 
C    -0.8857749    2.1650387   -0.7916055 
N    -1.8122166    1.2919952   -0.4138599 
C    -1.3934693    0.1721646    0.1460287 
C    -0.0582132   -0.1510562    0.3643194 
O    -2.3026124   -0.7324901    0.5402043 
C    -3.6644388   -0.4129973    0.3236382 
O    -1.2824961    3.3119202   -1.3633433 
C    -2.6748200    3.5080524   -1.5217820 
O     2.2123514    0.6180811    0.0994647 
C     2.6687408   -0.5738759    0.6968396 
H     1.1897484    2.7139721   -0.9593779 
H     0.1917380   -1.0910223    0.8295449 
H    -4.2279228   -1.2596772    0.7093637 
H    -3.8724279   -0.2746025   -0.7385103 
H    -3.9442463    0.4987598    0.8536681 
H    -2.7800408    4.4817107   -1.9952341 
H    -3.1869210    3.5016204   -0.5581935 
H    -3.1135926    2.7338647   -2.1533270 
H     3.7539593   -0.5063540    0.7154281 
H     2.3702700   -1.4502422    0.1146393 
H     2.2945162   -0.6748618    1.7195048 
