16
Energy = -433.9043563858
O     0.2118061   -0.3902703   -0.5044813 
C     0.5739570    0.8481578   -0.8802143 
C     1.2107504    1.7851965   -0.1144887 
N     1.2535381    2.9007993   -0.9489714 
C     1.9842890    4.1360078   -1.0691115 
C     1.3483543    4.6964027   -2.3539570 
N     0.9633240    3.4914404   -3.0949142 
C     0.7428002    2.5243987   -2.1317103 
N     0.2871987    1.2983466   -2.1445808 
H    -0.1877960   -0.8007446   -1.2759646 
H     1.5329110    1.7880961    0.9099153 
H     3.0561012    3.9462034   -1.1960718 
H     1.8405068    4.7963262   -0.2141318 
H     2.0456620    5.3063059   -2.9264708 
H     0.4749070    5.3050015   -2.0932538 
H     0.2358791    3.5997680   -3.7832839 
