13
Energy = -600.9908056818
C     0.8782256   -0.1491663    0.3341672 
C     0.2900955   -0.9771695   -0.6162875 
N    -0.8934246   -1.5378897   -0.4209201 
C    -1.4951174   -1.2701427    0.7325756 
C    -0.9021415   -0.4442017    1.6757953 
N     0.2816978    0.1180267    1.4836428 
C    -1.5677538   -0.1300528    2.9957366 
F    -0.8264835   -0.5490998    4.0223549 
F    -1.7588843    1.1812907    3.1420836 
F    -2.7623851   -0.7269341    3.0886719 
H     1.8481220    0.3043194    0.1604735 
H     0.7905571   -1.1891191   -1.5553034 
H    -2.4643669   -1.7204345    0.9076134 
