12
Energy = -562.9305195147
N     0.7416235    0.5740833    0.0059145 
C    -0.0528187    1.4683008   -0.5155354 
N     0.4904708    2.0588509   -1.6062207 
H     0.0597427    2.7734841   -2.1658311 
C     1.7202404    1.4978983   -1.7903894 
C     1.8548112    0.5820676   -0.7817910 
C    -1.4078864    1.8316408   -0.0034720 
F    -2.2436154    0.7946181   -0.0066873 
F    -1.3663873    2.3078510    1.2398078 
F    -1.9449934    2.7881117   -0.7864143 
H     2.3697460    1.7907367   -2.5971407 
H     2.6910527   -0.0683303   -0.5833290 
