12
Energy = -319.4474686262
N     0.8365714    0.7159140   -0.0245887 
C     1.4025335    0.7039081    1.1751588 
N     0.8989207    0.1543500    2.2694337 
C    -0.2894480   -0.4306913    2.1123945 
N    -0.9507503   -0.4789463    0.9547995 
C    -0.3415118    0.1067267   -0.0640303 
C    -0.9264738   -1.0502595    3.3055386 
H     2.3705805    1.1881894    1.2692587 
H    -0.8536843    0.0843133   -1.0219821 
H    -1.5535363   -1.8887630    3.0091941 
H    -1.5685075   -0.3106789    3.7923429 
H    -0.1699960   -1.3608301    4.0229654 
