13
Energy = -394.6242154860
N     0.8305054    0.7142668   -0.1526874 
C     1.0013934   -0.2449187   -1.0616885 
N     1.6973890   -0.1524350   -2.1775497 
C     2.2648079    1.0380660   -2.3644179 
N     2.1738894    2.0759276   -1.5395515 
C     1.4441198    1.8465625   -0.4566536 
O     2.9664502    1.1501720   -3.4753612 
C     3.5974433    2.3997498   -3.7301429 
H     0.5199754   -1.1986506   -0.8655393 
H     1.3436698    2.6701202    0.2446942 
H     2.8599498    3.1992060   -3.7988246 
H     4.1111347    2.2728031   -4.6792124 
H     4.3083719    2.6427523   -2.9406592 
