10
Energy = -297.3720847929
N     0.8741233    0.5354846    0.0442971 
C     0.8029112    0.3899358    1.3574112 
N    -0.3040246    0.9831827    1.8632173 
N    -0.9365793    1.5076005    0.8603072 
N    -0.2181421    1.2273875   -0.1973984 
H    -0.4865909    1.5209108   -1.1219253 
C     1.8044695   -0.3299482    2.1738042 
H     1.3330072   -1.1461049    2.7223916 
H     2.2548656    0.3418614    2.9055888 
H     2.5863063   -0.7348431    1.5349031 
