14
Energy = -486.8504869690
N     0.9826973    0.5281367    0.0970910 
C     1.8580457   -0.1724605    0.8080380 
C     3.0200582   -0.7947366    0.3401645 
C     3.2496584   -0.6395335   -1.0281989 
N     2.3970658    0.0527076   -1.7646384 
C     1.3247329    0.5932989   -1.1787123 
O     4.3123035   -1.1737204   -1.6174439 
N     3.6837979   -1.4312131    1.3629972 
C     2.9487392   -1.2014199    2.4103887 
N     1.8344019   -0.4490746    2.1443721 
H     1.1287504   -0.1509431    2.7941399 
H     0.6607883    1.1496044   -1.8316700 
H     4.2551399   -0.9347983   -2.5506162 
H     3.1652310   -1.5537422    3.4078844 
