15
Energy = -470.8092452766
N     0.7474226    0.3927604    0.1175544 
C     0.4853463   -0.3746657   -0.9259411 
C     1.2880145   -1.3815740   -1.4711040 
C     2.5172652   -1.6337224   -0.8683001 
C     2.8294513   -0.8475909    0.2320614 
C     1.9289773    0.1263266    0.6699260 
O     3.3528179   -2.5777290   -1.3194894 
N     0.6852184   -1.9687222   -2.5590303 
C    -0.4501472   -1.3383418   -2.6727282 
N    -0.6318373   -0.3718204   -1.7259689 
H    -1.4258237    0.2342361   -1.6218849 
H     3.7693466   -0.9911172    0.7477102 
H     2.1932318    0.7297497    1.5320446 
H     2.9409552   -2.9974147   -2.0830450 
H    -1.1949049   -1.5363758   -3.4290486 
