13
Energy = -411.6494209211
N     0.9498483    0.3678513    0.0052302 
C     1.7972729    0.0769853   -0.9634966 
C     1.6839554   -0.9894777   -1.8698994 
C     0.5679716   -1.7950039   -1.7075307 
N    -0.3035135   -1.5289369   -0.7419800 
C    -0.0728798   -0.4799137    0.0513333 
N     2.7466966   -0.9935384   -2.7476669 
C     3.4661380    0.0259690   -2.3835150 
N     2.9528450    0.7149595   -1.3151954 
H     3.3395982    1.5290956   -0.8715466 
H     0.3725108   -2.6495764   -2.3477270 
H    -0.8093808   -0.2980880    0.8267124 
H     4.3884863    0.3312921   -2.8556182 
