12
Energy = -468.4933141145
C     0.9743206    0.6136673    0.0455860 
C     0.8495778   -0.6456689   -0.5210206 
N     1.6545825   -1.1237167   -1.4345060 
C     2.6377152   -0.3213979   -1.8139682 
C     2.7871043    0.9466534   -1.2631175 
N     1.9603919    1.4143672   -0.3373516 
N    -0.2596834   -1.5337883   -0.0839744 
O    -0.9967611   -1.0769635    0.7648564 
O    -0.3449319   -2.6188231   -0.5928674 
H     0.2822445    0.9643703    0.7991080 
H     3.3196503   -0.6935186   -2.5702752 
H     3.5947664    1.5980148   -1.5791061 
