11
Energy = -430.4349088103
N     0.7556379    0.3350876    0.1097039 
C     0.5433854    1.5956391   -0.1344224 
N     0.2389917    2.3099374    0.9696414 
H     0.0440468    3.2970853    0.9729421 
C     0.2577910    1.4341308    2.0069036 
C     0.5800522    0.2164989    1.4517701 
N     0.6045151    2.2498028   -1.4114200 
O     0.3662214    3.4485883   -1.3959855 
O     0.8786296    1.5905519   -2.3802185 
H     0.0484483    1.7347932    3.0192902 
H     0.6923285   -0.7308432    1.9534069 
