3
Energy = -188.4673549519
C     0.0000087    0.0332910   -0.0000000 
O    -1.1553897   -0.0238741    0.0000000 
O     1.1553810    0.0905831    0.0000000 

