2
Energy = -109.4466845129
N     0.0000000    0.0000000    0.0002820 
N     0.0000000    0.0000000    1.0897180 

