15
Energy = -599.0700498500
N     1.0278144    0.8050644    0.0526639 
C     0.5675260    1.6357796   -0.9095140 
C    -0.6323249    2.2830716   -0.8545103 
O    -1.4656998    2.0700407    0.1825957 
C    -0.9877992    3.1715968   -1.8971642 
O    -2.0538695    3.7877060   -1.9239057 
C     0.0399783    3.2667416   -2.9316471 
N     1.1582298    2.6418429   -2.9665443 
O     1.4283560    1.7977770   -1.9208943 
H     0.3479792    0.4833098    0.7194701 
H     1.7605231    0.1650461   -0.1988891 
H    -2.2515260    2.6128592    0.0157962 
H    -0.1305315    3.9233374   -3.7779875 
N    -4.3321002    3.4024319    0.1417157 
N    -5.2411453    3.9279951   -0.1459266 
