18
Energy = -506.1852569906
C     0.7643468    0.5186936    0.3091201 
C     1.8237274   -0.4174270   -0.1376686 
H     2.1597822   -1.2224182    0.5045100 
N     0.4360193   -0.5146825   -0.6562314 
C     0.4092649   -0.0625541   -2.0638080 
C     1.8231562    0.3234850   -2.3587212 
N     2.4818990    0.8054419   -3.3926478 
N     3.7460021    0.8616261   -2.9482932 
H     4.4639621    1.1910073   -3.5672444 
C     3.9028764    0.4340930   -1.6677865 
C     2.6467831    0.0762758   -1.2520266 
H     0.8452321    1.5442664   -0.0393958 
H     0.3010604    0.3936520    1.2816492 
H    -0.3010958    0.7587897   -2.1805912 
H     0.0696878   -0.8884597   -2.6932366 
H     4.8692069    0.4320286   -1.1912512 
N     2.0579993    3.6754503   -1.5136723 
N     3.0498737    3.8818559   -1.9138903 
