14
Energy = -581.8568358575
O     0.3248065   -0.3379239   -0.0394644 
C     1.0303015   -0.9372989   -0.7712414 
O     1.6621372   -2.1305928   -0.4381839 
C     2.3254199   -2.4863788   -1.5656698 
C     2.1594172   -1.5801662   -2.5433232 
O     1.3335998   -0.5899144   -2.0549510 
C     3.0208909   -1.8992304   -3.6110987 
C     3.6773522   -3.0398974   -3.1931721 
N     3.2674156   -3.3849528   -1.9157434 
H     3.5482776   -4.2050611   -1.4120054 
H     3.1515186   -1.4059682   -4.5586173 
H     4.3682984   -3.6679897   -3.7277546 
N     4.5864399   -0.4218333   -0.7303334 
N     5.5388420   -0.8589001   -1.0289343 
