18
Energy = -506.2390629944
C     0.8911696    0.4490692   -0.2815049 
C    -0.2776046    0.4425719   -1.1997325 
C    -0.8433685    1.5278868   -1.8216286 
N    -1.9155419    1.1357891   -2.6219479 
H    -2.4865677    1.7513811   -3.1663546 
C    -2.0168053   -0.2081247   -2.4904845 
C    -1.0440348   -0.6804337   -1.6375332 
N    -1.1351266   -2.0500926   -1.5320397 
C    -2.1361716   -2.3720019   -2.3020049 
N    -2.7282806   -1.2850273   -2.9231678 
H    -3.4936955   -1.3184863   -3.5693010 
H     1.2688365    1.4610044   -0.1308968 
H     1.7061932   -0.1610600   -0.6783603 
H     0.6290665    0.0346858    0.6947993 
H    -0.5703318    2.5687523   -1.7624724 
H    -2.5085430   -3.3712101   -2.4677125 
N     1.0680706    0.1444395   -4.3576626 
N     0.1656515   -0.2330664   -4.8377440 
