18
Energy = -506.2511469121
C     1.1088763    1.2346401   -0.9106536 
C    -0.0686313    0.9671867   -1.7719863 
C    -1.3953820    1.2905714   -1.5646817 
C    -2.0827774    0.8095336   -2.7065519 
C    -1.1684401    0.2185668   -3.5534322 
N     0.0667250    0.3134516   -2.9792170 
H     0.9313853   -0.0146980   -3.3659375 
N    -1.7196135   -0.2654129   -4.6929660 
C    -2.9935420    0.0283164   -4.5496373 
N    -3.2752174    0.6743957   -3.3744983 
H    -4.1819140    0.9884470   -3.0850283 
H     0.7936547    1.7472060   -0.0029267 
H     1.8438241    1.8696491   -1.4141477 
H     1.6156479    0.3117702   -0.6134202 
H    -1.7759475    1.8057024   -0.6979504 
H    -3.7656783   -0.2030795   -5.2662850 
N    -0.8741246    3.4129904   -4.4110672 
N     0.1622421    3.4083573   -4.0746469 
