21
Energy = -528.5134162518
C     1.9035734    0.6616910   -0.2979840 
C     1.8446829    1.8311152    0.6129408 
C     2.5484639    2.1113548    1.7665015 
C     2.0572342    3.3493371    2.1992036 
N     1.1249453    3.8062859    1.3793420 
N     1.0009994    2.8716290    0.4263276 
C     0.0842518    3.0827898   -0.6749121 
C    -1.1625471    3.8346978   -0.2442088 
O    -0.9085730    5.1697066    0.0878699 
H     2.6639740   -0.0350033    0.0501786 
H     2.1563637    0.9527368   -1.3201342 
H     0.9501891    0.1278059   -0.3298542 
H     3.3043946    1.4960072    2.2247951 
H     2.3371975    3.9257921    3.0669576 
H    -0.1922933    2.1036573   -1.0684498 
H     0.5882259    3.6439023   -1.4680090 
H    -1.6378081    3.2919050    0.5842385 
H    -1.8631593    3.8350715   -1.0822983 
H    -0.2210231    5.1359469    0.7698788 
N    -0.7339291    1.3890064    3.2676047 
N    -0.9059456    0.9903709    2.2684477 
