15
Energy = -521.0936833154
N     0.8221125    0.7100994    0.1763464 
H     0.4389808    1.1285581    1.0065176 
C     0.3935735    0.8613710   -1.1131712 
N     1.0869671    0.1950643   -1.9914521 
C     2.0460747   -0.4480397   -1.2484307 
C     1.8951561   -0.1352428    0.1216169 
N     2.6534978   -0.5884604    1.0954268 
C     3.6129969   -1.4002167    0.6547244 
C     3.7803464   -1.7233239   -0.6964106 
N     3.0050064   -1.2564893   -1.6689670 
H    -0.4534708    1.4892717   -1.3486048 
H     4.2825141   -1.8168254    1.3986822 
H     4.5833239   -2.3917427   -0.9882406 
N     0.7962675    1.2598277    3.3755804 
N     1.2260172    1.1185135    4.3658286 
