18
Energy = -543.3817878634
C     0.6857782    1.3585398   -0.5310307 
C    -0.4451968    0.9975480   -1.4300996 
N    -0.1880560    0.5565000   -2.6510675 
C    -1.2051194    0.2427365   -3.4521672 
N    -0.8936828   -0.2632282   -4.6967214 
C    -2.5198968    0.3829834   -3.0119425 
N    -2.7887853    0.8273544   -1.7917417 
C    -1.7762481    1.1275301   -1.0114928 
O    -2.0289358    1.5794028    0.2351563 
H     1.6296519    1.1795340   -1.0411890 
H     0.6520977    0.7725851    0.3902396 
H     0.6242533    2.4087073   -0.2360594 
H     0.0512398   -0.0674087   -4.9827165 
H    -1.5747328   -0.1119539   -5.4203318 
H    -3.3616481    0.1335383   -3.6495587 
H    -2.9869440    1.6007350    0.3282940 
N    -1.2883001    3.8917640   -2.8927782 
N    -1.6099879    3.5333672   -3.8703208 
