12
Energy = -373.5681291313
N     0.6273821    0.1647539    0.0646906 
C    -0.6850581    0.0583473    0.2336836 
N    -1.3177703   -0.4678588    1.2753959 
C    -0.5455223   -0.9340888    2.2502471 
C     0.8363876   -0.8767091    2.1895126 
C     1.3810669   -0.3075537    1.0510815 
H    -1.3088112    0.4445867   -0.5666163 
H    -1.0524881   -1.3654770    3.1082762 
H     1.4577511   -1.2557579    2.9897433 
H     2.4563945   -0.2244064    0.9242291 
N    -0.4409138    2.9210876    2.1112681 
N     0.1745367    2.5567098    2.9331313 
