18
Energy = -547.1806679472
C     0.2229335    0.7937288   -0.5837936 
O    -0.7991074   -0.1721242   -0.5520592 
C    -1.6846680   -0.1675456   -1.5754305 
C    -1.6468678    0.6895521   -2.6632543 
N    -2.5557788    0.6508247   -3.6423518 
C    -3.5239888   -0.2325674   -3.5724178 
O    -4.4315796   -0.2562325   -4.5673885 
C    -3.6551594   -1.1438808   -2.5214135 
C    -2.7189016   -1.1040858   -1.5181366 
H     0.8135577    0.6441046    0.3171100 
H    -0.1878061    1.8086092   -0.5826299 
H     0.8659951    0.6678647   -1.4610555 
H    -0.8723763    1.4391058   -2.7670857 
H    -4.1734192    0.4375264   -5.1833546 
H    -4.4738061   -1.8501927   -2.5128588 
H    -2.7666390   -1.7823046   -0.6752767 
N    -4.8147643    1.9625674   -1.2547469 
N    -3.9218827    2.3842250   -0.7940832 
