16
Energy = -542.1452988064
O     0.3767436    0.4397995   -0.2079930 
C    -0.1490740   -0.7326028   -0.5968097 
C    -0.9172299   -1.5675226    0.1801060 
N    -1.2014208   -2.6255731   -0.6745131 
C    -1.8712107   -3.8277967   -0.7817493 
C    -1.6622106   -4.2750902   -2.0463801 
N    -0.8675284   -3.3593848   -2.7084911 
C    -0.5975106   -2.3370371   -1.8563144 
N     0.0571845   -1.1961747   -1.8628085 
H     0.8588765    0.7860306   -0.9637245 
H    -1.2587523   -1.5047961    1.1954646 
H    -2.4278403   -4.2698393    0.0241847 
H    -2.0122470   -5.1727079   -2.5229003 
H    -0.5878037   -3.3965396   -3.6689668 
N    -3.5444005   -0.2965629   -1.6430682 
N    -3.3575322   -0.9875413   -2.4647991 
