16
Energy = -521.3364654807
N     1.2792554    1.2119908   -0.3126026 
C     1.9646701    0.0119545   -0.5021550 
C     2.6149769   -0.8694255    0.3157966 
N     2.7400799   -0.8374507    1.6976699 
N     3.1396295   -1.9151059   -0.4043672 
C     2.8099778   -1.6677928   -1.6438179 
O     3.1081312   -2.4291525   -2.7017587 
N     2.1083906   -0.5393011   -1.7856971 
H     1.7395112   -0.1521281   -2.6345368 
H     1.8636589    1.9840974   -0.0251157 
H     0.4820292    1.1365940    0.3013486 
H     2.7951214    0.0954210    2.0749236 
H     3.5154813   -1.4000861    2.0111505 
H     3.6130702   -3.1753107   -2.3653242 
N     5.2856127    0.5612695   -1.5484704 
N     4.8627775    1.1862703   -0.7617350 
