15
Energy = -959.1193633977
N     1.6163536    0.4234793    0.0880093 
C     1.5010548   -0.6808366   -0.5971166 
N     1.2878955   -0.4294993   -1.9162551 
H     1.1621692   -1.1154046   -2.6395134 
C     1.2712213    0.9225299   -2.0852926 
C     1.4737792    1.4224014   -0.8308923 
S     1.5218897    3.1080381   -0.3965107 
O     1.4954021    3.8573870   -1.6049005 
O     0.5910037    3.3454081    0.6577427 
O     2.9797185    3.2665024    0.1952806 
H     1.5626240   -1.6814107   -0.1989406 
H     1.1245788    1.4079303   -3.0337256 
H     2.9663848    2.9795434    1.1216628 
N     2.5101221    2.0638155    2.9468074 
N     2.0634638    1.5153739    3.7736777 
