15
Energy = -710.4472050584
N     0.9156839    0.9308100    0.1923769 
C     1.2768817    0.1332430   -0.8018870 
N     2.5179053   -0.1909014   -1.1481577 
C     3.4869557    0.3445825   -0.4190550 
C     3.2335094    1.1938217    0.6482924 
C     1.9016230    1.4514358    0.9073278 
C     1.4678046    2.3440190    2.0528102 
F     0.7211360    3.3568229    1.6187013 
F     0.7526295    1.6575056    2.9443217 
F     2.5242914    2.8603148    2.6909850 
H     0.4761443   -0.3002997   -1.3917688 
H     4.5046873    0.0856610   -0.6936113 
H     4.0273086    1.6237156    1.2413729 
N     2.2378280   -1.7018287    2.4100306 
N     1.4501663   -2.1530343    1.8075041 
