16
Energy = -997.1829208527
N     0.9072723    0.7140359   -0.1464512 
C    -0.1193447    1.0431279   -0.9205788 
N    -1.0965153    1.8872195   -0.6175177 
C    -1.0242724    2.4386690    0.5818923 
C    -0.0175425    2.1765909    1.4875383 
C     0.9506652    1.2828715    1.0513484 
S    -2.3090416    3.6147116    0.9744334 
O    -2.3032571    3.8155085    2.3809670 
O    -2.1939226    4.6991465    0.0559265 
O    -3.6061100    2.7913991    0.6384193 
H    -0.1654763    0.5764051   -1.8989189 
H     0.0001017    2.6364794    2.4651893 
H     1.7867658    1.0139749    1.6890120 
H    -3.7459668    2.8020573   -0.3233319 
N    -3.5814344    3.2046971   -3.4081222 
N    -3.7694830    3.0250968   -2.3515100 
