14
Energy = -428.8967619293
N     0.8124906    0.6054815    0.0564012 
C    -0.2490686    1.0906446   -0.5748799 
N    -0.6532878    2.3510160   -0.5646494 
C     0.1017806    3.1817707    0.1564987 
N     1.1863720    2.8043278    0.8354356 
C     1.4855704    1.5178072    0.7454211 
C    -0.2736231    4.6202645    0.1823308 
H    -0.8421787    0.3884927   -1.1542462 
H     2.3643157    1.1783178    1.2867676 
H    -1.3501851    4.7349907    0.0734087 
H     0.2033761    5.1241891   -0.6631952 
H     0.0807711    5.0907596    1.0968815 
N     2.4165367    2.3910781   -2.8030433 
N     2.0844709    3.3898365   -2.5218608 
