12
Energy = -704.4048523754
N     1.4235850    0.4007837    1.0446495 
C     2.3295888   -0.0089136    0.1801513 
N     3.3405095    0.8655600    0.0284964 
N     3.0697111    1.8573823    0.8168939 
N     1.9347298    1.5528709    1.4009256 
H     1.4920295    2.1647739    2.0729582 
C     2.2555355   -1.3134449   -0.5550464 
F     1.1248957   -1.9528857   -0.2743580 
F     2.3103302   -1.1188854   -1.8727183 
F     3.2759804   -2.1051580   -0.2200919 
N     0.1547543    4.2371447    4.2361062 
N     0.5911712    3.5418431    3.5212956 
