16
Energy = -596.3007722998
N     1.4096656    0.6108475   -1.3620591 
C     1.9600765    1.8101787   -1.5163443 
C     1.4077297    3.0436148   -1.1545814 
C     0.1413794    2.9638490   -0.5724905 
N    -0.4338066    1.7847922   -0.4051193 
C     0.2149793    0.6855731   -0.8001243 
O    -0.5100330    4.0509580   -0.1773299 
N     2.2630852    4.0748055   -1.4647664 
C     3.2936295    3.4836211   -1.9941451 
N     3.1747274    2.1204984   -2.0547977 
H     3.8379134    1.4580416   -2.4188272 
H    -0.3050560   -0.2525146   -0.6378255 
H    -1.3498469    3.7467050    0.1877952 
H     4.1748988    3.9885801   -2.3607363 
N     4.0157787   -1.9717763   -2.6990112 
N     4.1779207   -0.8954043   -2.7169430 
