18
Energy = -455.9559823913
C     0.8924066    0.8191144   -0.0842183 
C     1.8917008    1.6300710    0.4228104 
C     1.9426905    2.9646628    0.0343696 
C     1.0121687    3.4761494   -0.8482241 
C     0.0116538    2.6526941   -1.3623537 
C    -0.0500135    1.3177546   -0.9757870 
O    -0.8467663    3.2348650   -2.2299698 
C    -1.8443877    2.4281949   -2.8050100 
H     0.8382988   -0.2224805    0.2091535 
H     2.6241325    1.2318428    1.1129817 
H     2.7189485    3.6129749    0.4226057 
H     1.0416201    4.5117684   -1.1624543 
H    -0.8171030    0.6620844   -1.3629703 
H    -2.4073199    3.0722720   -3.4769467 
H    -2.5207068    2.0228132   -2.0456610 
H    -1.4096971    1.6023619   -3.3769285 
N     2.3092504    1.2772068   -3.4721230 
N     3.2527280    1.3378520   -2.9306360 
