14
Energy = -577.9494835886
N     0.5524383    0.0928456    0.0715302 
C     1.0807912    0.6085997    1.1762272 
N     0.4309653    1.0947464    2.2283557 
C    -0.8922382    1.0617545    2.1689111 
C    -1.5348268    0.5448977    1.0585447 
C    -0.7707895    0.0604702    0.0123390 
N    -2.9904392    0.5034283    0.9957114 
O    -3.5976329    0.9335087    1.9505997 
O    -3.4875004    0.0380583   -0.0053592 
H     2.1645352    0.6353197    1.2248805 
H    -1.4591303    1.4469938    3.0081498 
H    -1.2406644   -0.3543075   -0.8715595 
N    -3.5722695   -3.2543658    2.5170509 
N    -2.9854707   -2.3804115    2.2377397 
