16
Energy = -450.9090065109
N     0.8805499    0.1815979   -0.4330583 
C     0.8336618    1.4517228   -0.0729312 
N     1.8524345    2.2262100    0.2903632 
C     3.0434912    1.6393268    0.2869056 
C     3.2178763    0.3154817   -0.0721631 
C     2.0832552   -0.4032709   -0.4382456 
C     2.1825464   -1.8055616   -0.8438307 
C     1.1393100   -2.5389593   -1.2169733 
H    -0.1473027    1.9178384   -0.0750097 
H     3.8898728    2.2534611    0.5800511 
H     4.1978581   -0.1441852   -0.0736637 
H     3.1796043   -2.2338782   -0.8297111 
H     0.1453539   -2.1091186   -1.2314020 
H     1.2577329   -3.5732491   -1.5123427 
N     1.7421928    1.9163415   -3.3812134 
N     2.7014348    1.4000277   -3.3644559 
