18
Energy = -679.3530953846
N     0.4769350    1.6524618   -1.1585899 
C    -0.7098226    1.4007536   -0.6013781 
O    -1.7573252    1.3084435   -1.2263998 
C    -0.6862935    1.2135140    0.9106714 
H    -0.8486518    0.1445774    1.0976620 
O     0.5358821    1.6606705    1.4215787 
C    -1.8944577    1.9717967    1.5142328 
H    -1.7764431    3.0391918    1.2723366 
O    -3.1088417    1.4554793    1.0748615 
C    -1.8142170    1.8557454    2.9732656 
N    -1.6731322    1.7444177    4.1076779 
H     0.5314616    1.7991822   -2.1505793 
H     1.2814512    1.7738214   -0.5687908 
H     0.6994931    1.2525369    2.2782095 
H    -2.9992502    1.3503167    0.1110313 
C     0.7257094    0.2660843    5.0913671 
O     1.0708590    0.2512074    3.9819045 
O     0.4170295    0.2588634    6.2000329 
