15
Energy = -694.0677869222
O    -0.2011272    1.8491968   -1.5698540 
C     1.1183417    2.2528956   -1.7133897 
H     1.1984231    3.3490606   -1.7584444 
C     1.9429566    1.8034478   -0.5178703 
O     1.4251276    1.2252468    0.3941057 
C     1.7172727    1.7256640   -2.9742187 
N     2.1973056    2.4528780   -3.9306329 
O     2.6071443    1.5717967   -4.8473618 
N     2.3528333    0.3007384   -4.3965355 
N     1.8223301    0.3883045   -3.2718509 
H    -0.2459081    1.3588004   -0.7348803 
H     3.0194382    2.0474021   -0.5338300 
C    -1.7573338    0.7013023   -3.6951772 
O    -1.0772797    1.1996288   -4.4884631 
O    -2.4514484    0.1935641   -2.9229859 
