21
Energy = -586.4650358535
N     0.8487236    0.3532957    0.1732910 
C    -0.4553161    0.7031649    0.5566554 
C    -1.6321303    0.8852363   -0.1281381 
C    -2.6426364    1.3057988    0.7960790 
C    -2.0209469    1.3654226    2.0152837 
N    -2.3130943    1.4979587    3.3799060 
C    -1.0101458    1.6732863    4.0364164 
C    -0.0471948    0.8905141    3.1335844 
N    -0.7118370    1.0418332    1.8646486 
H     1.0666651    0.6925016   -0.7510797 
H     1.0071499   -0.6456127    0.1914874 
H    -1.7589305    0.7508335   -1.1913276 
H    -3.6751180    1.5220928    0.5785624 
H    -2.9826396    2.2199576    3.5956781 
H    -1.0286523    1.2880199    5.0553157 
H    -0.7101016    2.7278767    4.0609702 
H     0.0043226   -0.1641377    3.4215724 
H     0.9589877    1.3067962    3.1205701 
C    -3.3796456   -1.2937032    2.7060292 
O    -2.2987928   -1.7071729    2.7404723 
O    -4.4746450   -0.9231842    2.6823303 
