18
Energy = -601.3081245458
N     0.2024126    0.1457793    1.5529079 
C    -0.8216981    0.7898537    1.1548855 
N    -0.8429931    2.1655546    1.0076403 
C    -2.1430764    2.7332564    0.6949508 
C    -2.9207591    1.4817025    0.5177416 
C    -2.1731040    0.3781660    0.7705675 
N    -2.8896578   -0.7706791    0.6049827 
C    -4.0745436   -0.3494204    0.2464846 
N    -4.1511448    1.0217815    0.1742975 
H     0.0020880   -0.8475886    1.5755500 
H    -0.1066699    2.7113228    1.4194632 
H    -2.1082661    3.3513568   -0.2095691 
H    -2.5282477    3.3567315    1.5116241 
H    -4.9254697   -0.9745074    0.0237935 
H    -4.9650418    1.5527730   -0.0781461 
C     2.3917668    1.4228043    2.6095605 
O     2.9566143    0.4395375    2.8242972 
O     1.9060624    2.4633427    2.4362265 
