18
Energy = -601.2954942401
C     1.4777098    0.1299983   -0.4571248 
N     0.8629955   -0.7386590    0.5378209 
C    -0.3964129   -0.8555395    0.6077546 
N    -1.3448299   -0.2280312   -0.1717201 
C    -0.8919249    0.7593107   -1.0138853 
N    -1.6449245    1.5856343   -1.7121888 
N    -0.7480720    2.3615680   -2.3455425 
H    -1.0783088    3.0801661   -2.9611284 
C     0.5308169    2.0374101   -2.0576145 
C     0.4832092    0.9805845   -1.1808144 
H     2.0365671   -0.5076516   -1.1533985 
H     2.2322516    0.7397010    0.0501551 
H    -0.8179265   -1.5271966    1.3527072 
H    -2.3211289   -0.2783437    0.0608279 
H     1.3594143    2.5727750   -2.4923706 
C    -4.4033516    1.7005363   -1.3234371 
O    -4.5508732    2.5842721   -2.0520524 
O    -4.3229864    0.8150332   -0.5794213 
