18
Energy = -642.2372826283
C     0.7388284    0.7527027   -0.0633582 
N    -0.5027687    0.1895979    0.3923078 
N    -0.5304550   -0.6595860    1.4609838 
C    -1.7859653   -0.9989552    1.6208267 
C    -2.6164374   -0.3790271    0.6567895 
C    -4.0053004   -0.3687456    0.3448162 
O    -4.4464606    0.2961135   -0.5914699 
C    -1.7217375    0.3769547   -0.1087089 
O    -1.9920947    1.1440945   -1.1399548 
H     1.2161322    1.2999243    0.7483407 
H     0.5254489    1.4271934   -0.8895295 
H     1.4082781   -0.0393279   -0.3978146 
H    -2.0587510   -1.6735891    2.4184492 
H    -4.6911768   -0.9726712    0.9611978 
H    -2.9745451    1.0586410   -1.2410890 
C     1.5414688   -1.4996331    3.1728218 
O     0.7774168   -2.1333973    3.7665785 
O     2.3472794   -0.8834814    2.6153330 
