16
Energy = -600.1255212491
N     1.6143805    1.3375113    0.3581070 
H     2.5512425    1.2646691   -0.0019963 
C     0.4656134    1.6449053   -0.3223527 
N    -0.6010468    1.6632094    0.4218784 
C    -0.1402252    1.3483531    1.6815166 
C     1.2486162    1.1412454    1.6572106 
N     2.0017159    0.8250894    2.6956753 
C     1.3004336    0.7138779    3.8199294 
N    -0.0129657    0.8827108    3.9808492 
C    -0.7455136    1.2004060    2.9192135 
H     0.4812835    1.8483835   -1.3830293 
H     1.8643698    0.4555206    4.7097338 
H    -1.8131146    1.3354933    3.0614189 
C     4.7744129    0.5411945    2.1060872 
O     5.0671638    0.3008464    3.1951334 
O     4.5419182    0.7775765    0.9934022 
