16
Energy = -686.1348077193
O     0.4062304   -0.2887493   -0.3080676 
C     1.6782107   -0.6131483   -0.0703901 
N     2.6195783   -0.2064097   -0.9027793 
C     3.8843119   -0.5425670   -0.6451692 
C     4.2760785   -1.2921337    0.4410311 
C     3.2866083   -1.7239208    1.3227098 
O     3.6090243   -2.4568384    2.3979519 
C     1.9768784   -1.3741892    1.0530475 
F     1.0155871   -1.7847509    1.8954671 
H     0.3918291    0.2353676   -1.1206160 
H     4.6201523   -0.1854469   -1.3570970 
H     5.3110840   -1.5467513    0.6201356 
H     2.8079742   -2.6634279    2.8893818 
C     1.9555865    1.3154208   -3.1387558 
O     0.8323247    1.2824545   -2.8452216 
O     3.0524883    1.3874984   -3.4877894 
