21
Energy = -623.5659975038
C     0.2377284    0.4778557   -0.0912814 
N     1.2111435    1.3291059    0.5877304 
C     0.6569468    2.3492969    1.3682832 
C    -0.0887004    2.3760849    2.5237418 
O    -0.4520378    1.2871809    3.2226885 
C    -1.2083275    1.5405204    4.3913939 
N    -0.4078465    3.6432015    2.8779442 
C     0.1291658    4.4081551    1.9488891 
N     0.7760536    3.6802016    1.0230409 
H     1.2845290    4.0092385    0.2200600 
H    -0.4544068   -0.0182985    0.5972502 
H     0.7687379   -0.2802789   -0.6688925 
H    -0.3467402    1.0849286   -0.7838677 
H     1.8430232    0.7621375    1.1364221 
H    -1.4162931    0.5668300    4.8299529 
H    -2.1429314    2.0520923    4.1522590 
H    -0.6480928    2.1580048    5.0965736 
H     0.0705586    5.4842536    1.9155271 
C     2.8951125    2.1888194   -1.5956604 
O     2.6057491    3.3039395   -1.4616989 
O     3.2202050    1.0966884   -1.7822779 
