13
Energy = -506.6951088359
N     0.4328448    0.7233415   -0.5327886 
C     0.5795850   -0.0475154   -1.5878937 
N     1.8806955   -0.1274488   -1.9768425 
H     2.2206050   -0.6617325   -2.7602588 
C     2.5991350    0.6383070   -1.1167024 
C     1.6844252    1.1549249   -0.2320367 
C    -0.4449169   -0.7375250   -2.2810485 
N    -1.2357518   -1.3202369   -2.8827017 
H     3.6665725    0.7493898   -1.2012517 
H     1.8678921    1.8130255    0.6016431 
C     0.8727318   -2.5533063   -4.9677458 
O     1.7148767   -1.9844258   -4.4054593 
O     0.0563211   -3.1269011   -5.5418142 
