13
Energy = -452.5857934449
C    -0.9365400    2.2659736    1.0338171 
C    -0.5086815    1.4738979   -0.0229342 
N    -0.1101174    0.2210196    0.1555805 
C    -0.1431464   -0.2341025    1.4014716 
C    -0.5708447    0.5551301    2.4604126 
N    -0.9683636    1.8073119    2.2779755 
H    -1.2600874    3.2896868    0.8765888 
H    -0.4880627    1.8619711   -1.0360465 
H     0.1797433   -1.2570234    1.5651830 
H    -0.5940675    0.1722323    3.4754195 
C    -1.8374810    3.4376094    4.3691195 
O    -2.0086887    4.3216220    3.6418356 
O    -1.6866338    2.5921281    5.1449113 
