18
Energy = -659.2862570471
N    -0.2578568    0.6105436    0.7994778 
C    -0.1433206    0.0901946   -0.4089347 
C     0.8075509    0.3910025   -1.3913131 
C     1.7696602    1.3560438   -1.0917730 
C     1.6787321    1.9252403    0.1730456 
C     0.6736116    1.5270251    1.0545259 
O     2.7275536    1.7301450   -1.9422329 
N     0.5967443   -0.3651191   -2.5230206 
C    -0.4436560   -1.0985691   -2.2396985 
N    -0.9339217   -0.8736200   -0.9894004 
H    -1.7234915   -1.3192827   -0.5573744 
H     2.3943334    2.6803703    0.4691674 
H     0.6263152    1.9880398    2.0355404 
H     2.6450297    1.2374019   -2.7692884 
H    -0.8903037   -1.8179649   -2.9095946 
C     1.9305960   -0.4856355   -4.9163251 
O     2.6793909    0.3325387   -4.5737033 
O     1.2272284   -1.3019137   -5.3288985 
