18
Energy = -676.2631527477
N     1.3381652    1.4911997   -0.7907066 
C     0.4721815    2.4839633   -0.7623678 
C     0.4588671    3.5868173    0.1161010 
C     1.4744137    3.6452104    1.0698700 
C     2.4031565    2.6058806    1.0599072 
C     2.2956606    1.5730861    0.1301612 
C     1.5687933    4.7089040    2.0127346 
N     1.6676911    5.5565448    2.7848836 
N    -0.5981240    4.4110887   -0.1621747 
C    -1.2018310    3.8356531   -1.1657342 
N    -0.6122752    2.6768773   -1.5747090 
H    -0.8931729    2.0636840   -2.3217496 
H     3.2120198    2.5999203    1.7771572 
H     3.0241275    0.7704763    0.1325235 
H    -2.0888082    4.2182921   -1.6486710 
C     0.8762596   -0.4707067   -2.7955653 
O    -0.0545880    0.1246687   -3.1513625 
O     1.7893235   -1.1035249   -2.4861000 
