14
Energy = -469.8458603001
N     0.2234367    0.5784168   -0.9058829 
C     1.0941758   -0.1668441   -0.2803485 
N     2.3579790    0.1080021   -0.6905427 
H     3.2135394   -0.2727095   -0.3277157 
C     2.2815807    1.0864559   -1.6491404 
C     0.9462249    1.3607809   -1.7679192 
N     3.4471372    1.6090289   -2.2171681 
H     0.8650784   -0.9156793    0.4614372 
H     0.4712246    2.0756704   -2.4209326 
H     3.3026619    2.5481067   -2.5547720 
H     3.8036668    1.0441372   -2.9766720 
C    -2.4266030    0.1865292   -0.2343361 
O    -2.8275452    0.9702311   -0.9844545 
O    -2.1058842   -0.6134312    0.5398585 
