16
Energy = -640.9444742595
C     0.7258009    0.9340244   -0.2203590 
C    -0.6263810    0.9629719   -0.4916583 
C    -1.0970774    0.0496955   -1.4233158 
N    -0.3164310   -0.8255328   -2.0458532 
C     0.9808913   -0.8285054   -1.7632041 
C     1.5637996    0.0368719   -0.8494490 
N     1.2863938    1.8807985    0.7606844 
O     0.5176729    2.6552908    1.2823229 
O     2.4751777    1.8160486    0.9738463 
H    -1.2760528    1.6685981    0.0049595 
H    -2.1502603    0.0210661   -1.6812409 
H     1.5855720   -1.5571915   -2.2922518 
H     2.6215459    0.0203683   -0.6315174 
C    -1.4267572   -2.5500941   -3.9476647 
O    -0.3990822   -3.0354435   -4.1655079 
O    -2.4794434   -2.1020799   -3.7719016 
