14
Energy = -673.0030589650
N     0.2571978    0.9081557    0.1292969 
C    -0.7089007    0.0031306    0.0674627 
N    -1.3211497   -0.5431640    1.1144904 
C    -0.8431406   -0.1154340    2.2567872 
N     0.1165404    0.7468429    2.4796864 
C     0.6247066    1.2475739    1.3567514 
N    -1.4882613   -0.6806498    3.4693493 
O    -0.7978972   -1.3747915    4.1681990 
O    -2.6468709   -0.3865476    3.6369652 
H    -1.0348983   -0.3187501   -0.9159101 
H     1.4070429    1.9918739    1.4602333 
C    -3.9289675    1.8716026    2.0880460 
O    -4.9851873    1.5619846    2.4351057 
O    -2.8770873    2.1997539    1.7280531 
