19
Energy = -788.4714357999
N     0.1406286    0.2964105    0.8294499 
C     0.4028993   -0.4401147    1.8885460 
C     1.5642489   -1.2066115    2.1534914 
C     2.5416892   -1.1486725    1.1653287 
C     2.3109922   -0.3730280    0.0448630 
C     1.1071561    0.3169904   -0.0839441 
N     3.8041628   -1.8854458    1.2670410 
O     4.7311088   -1.4809513    0.5966811 
O     3.8256099   -2.8436256    2.0000387 
N     1.4582224   -1.8204414    3.3733878 
C     0.2908750   -1.4512493    3.8243729 
N    -0.3940920   -0.6282061    2.9843925 
H    -1.3028589   -0.2154217    3.1145929 
H     3.0698536   -0.3124435   -0.7215149 
H     0.9190325    0.9154850   -0.9674766 
H    -0.1191895   -1.7556406    4.7760549 
C    -2.3640547    1.6553447    0.8660188 
O    -2.1828148    2.1599042   -0.1549343 
O    -2.5995304    1.1756412    1.8965543 
