17
Energy = -529.9335975814
N     0.0866040    0.4664353   -0.0916285 
C     0.4191348   -0.2197124   -1.1690527 
N     0.5017533    0.2352106   -2.4161299 
C     0.2162442    1.5214228   -2.5833336 
C    -0.1441108    2.3381656   -1.5284120 
C    -0.2003393    1.7621860   -0.2616581 
C    -0.5731800    2.5592047    0.9071601 
C    -0.6443048    2.0681147    2.1397729 
H     0.6514329   -1.2709172   -1.0259057 
H     0.2804115    1.9028517   -3.5978876 
H    -0.3739140    3.3850484   -1.6793304 
H    -0.7964514    3.6041380    0.7172663 
H    -0.4210832    1.0251331    2.3273991 
H    -0.9244307    2.6936014    2.9772113 
C     1.2102511   -1.1807521   -4.7154716 
O     1.0570817   -0.2201089   -5.3440485 
O     1.3805571   -2.1729178   -4.1459299 
